<?xml version="1.0"?>
<VTKFile type="UnstructuredGrid"  version="0.1"  >
<UnstructuredGrid>
<Piece  NumberOfPoints="2113" NumberOfCells="4096">
<Points>
<DataArray  type="Float32"  NumberOfComponents="3"  format="ascii">
0 0 0
0.03125 0 0
0.0625 0 0
0.09375 0 0
0.125 0 0
0.15625 0 0
0.1875 0 0
0.21875 0 0
0.25 0 0
0.28125 0 0
0.3125 0 0
0.34375 0 0
0.375 0 0
0.40625 0 0
0.4375 0 0
0.46875 0 0
0.5 0 0
0.53125 0 0
0.5625 0 0
0.59375 0 0
0.625 0 0
0.65625 0 0
0.6875 0 0
0.71875 0 0
0.75 0 0
0.78125 0 0
0.8125 0 0
0.84375 0 0
0.875 0 0
0.90625 0 0
0.9375 0 0
0.96875 0 0
1 0 0
0 0.03125 0
0.03125 0.03125 0
0.0625 0.03125 0
0.09375 0.03125 0
0.125 0.03125 0
0.15625 0.03125 0
0.1875 0.03125 0
0.21875 0.03125 0
0.25 0.03125 0
0.28125 0.03125 0
0.3125 0.03125 0
0.34375 0.03125 0
0.375 0.03125 0
0.40625 0.03125 0
0.4375 0.03125 0
0.46875 0.03125 0
0.5 0.03125 0
0.53125 0.03125 0
0.5625 0.03125 0
0.59375 0.03125 0
0.625 0.03125 0
0.65625 0.03125 0
0.6875 0.03125 0
0.71875 0.03125 0
0.75 0.03125 0
0.78125 0.03125 0
0.8125 0.03125 0
0.84375 0.03125 0
0.875 0.03125 0
0.90625 0.03125 0
0.9375 0.03125 0
0.96875 0.03125 0
1 0.03125 0
0 0.0625 0
0.03125 0.0625 0
0.0625 0.0625 0
0.09375 0.0625 0
0.125 0.0625 0
0.15625 0.0625 0
0.1875 0.0625 0
0.21875 0.0625 0
0.25 0.0625 0
0.28125 0.0625 0
0.3125 0.0625 0
0.34375 0.0625 0
0.375 0.0625 0
0.40625 0.0625 0
0.4375 0.0625 0
0.46875 0.0625 0
0.5 0.0625 0
0.53125 0.0625 0
0.5625 0.0625 0
0.59375 0.0625 0
0.625 0.0625 0
0.65625 0.0625 0
0.6875 0.0625 0
0.71875 0.0625 0
0.75 0.0625 0
0.78125 0.0625 0
0.8125 0.0625 0
0.84375 0.0625 0
0.875 0.0625 0
0.90625 0.0625 0
0.9375 0.0625 0
0.96875 0.0625 0
1 0.0625 0
0 0.09375 0
0.03125 0.09375 0
0.0625 0.09375 0
0.09375 0.09375 0
0.125 0.09375 0
0.15625 0.09375 0
0.1875 0.09375 0
0.21875 0.09375 0
0.25 0.09375 0
0.28125 0.09375 0
0.3125 0.09375 0
0.34375 0.09375 0
0.375 0.09375 0
0.40625 0.09375 0
0.4375 0.09375 0
0.46875 0.09375 0
0.5 0.09375 0
0.53125 0.09375 0
0.5625 0.09375 0
0.59375 0.09375 0
0.625 0.09375 0
0.65625 0.09375 0
0.6875 0.09375 0
0.71875 0.09375 0
0.75 0.09375 0
0.78125 0.09375 0
0.8125 0.09375 0
0.84375 0.09375 0
0.875 0.09375 0
0.90625 0.09375 0
0.9375 0.09375 0
0.96875 0.09375 0
1 0.09375 0
0 0.125 0
0.03125 0.125 0
0.0625 0.125 0
0.09375 0.125 0
0.125 0.125 0
0.15625 0.125 0
0.1875 0.125 0
0.21875 0.125 0
0.25 0.125 0
0.28125 0.125 0
0.3125 0.125 0
0.34375 0.125 0
0.375 0.125 0
0.40625 0.125 0
0.4375 0.125 0
0.46875 0.125 0
0.5 0.125 0
0.53125 0.125 0
0.5625 0.125 0
0.59375 0.125 0
0.625 0.125 0
0.65625 0.125 0
0.6875 0.125 0
0.71875 0.125 0
0.75 0.125 0
0.78125 0.125 0
0.8125 0.125 0
0.84375 0.125 0
0.875 0.125 0
0.90625 0.125 0
0.9375 0.125 0
0.96875 0.125 0
1 0.125 0
0 0.15625 0
0.03125 0.15625 0
0.0625 0.15625 0
0.09375 0.15625 0
0.125 0.15625 0
0.15625 0.15625 0
0.1875 0.15625 0
0.21875 0.15625 0
0.25 0.15625 0
0.28125 0.15625 0
0.3125 0.15625 0
0.34375 0.15625 0
0.375 0.15625 0
0.40625 0.15625 0
0.4375 0.15625 0
0.46875 0.15625 0
0.5 0.15625 0
0.53125 0.15625 0
0.5625 0.15625 0
0.59375 0.15625 0
0.625 0.15625 0
0.65625 0.15625 0
0.6875 0.15625 0
0.71875 0.15625 0
0.75 0.15625 0
0.78125 0.15625 0
0.8125 0.15625 0
0.84375 0.15625 0
0.875 0.15625 0
0.90625 0.15625 0
0.9375 0.15625 0
0.96875 0.15625 0
1 0.15625 0
0 0.1875 0
0.03125 0.1875 0
0.0625 0.1875 0
0.09375 0.1875 0
0.125 0.1875 0
0.15625 0.1875 0
0.1875 0.1875 0
0.21875 0.1875 0
0.25 0.1875 0
0.28125 0.1875 0
0.3125 0.1875 0
0.34375 0.1875 0
0.375 0.1875 0
0.40625 0.1875 0
0.4375 0.1875 0
0.46875 0.1875 0
0.5 0.1875 0
0.53125 0.1875 0
0.5625 0.1875 0
0.59375 0.1875 0
0.625 0.1875 0
0.65625 0.1875 0
0.6875 0.1875 0
0.71875 0.1875 0
0.75 0.1875 0
0.78125 0.1875 0
0.8125 0.1875 0
0.84375 0.1875 0
0.875 0.1875 0
0.90625 0.1875 0
0.9375 0.1875 0
0.96875 0.1875 0
1 0.1875 0
0 0.21875 0
0.03125 0.21875 0
0.0625 0.21875 0
0.09375 0.21875 0
0.125 0.21875 0
0.15625 0.21875 0
0.1875 0.21875 0
0.21875 0.21875 0
0.25 0.21875 0
0.28125 0.21875 0
0.3125 0.21875 0
0.34375 0.21875 0
0.375 0.21875 0
0.40625 0.21875 0
0.4375 0.21875 0
0.46875 0.21875 0
0.5 0.21875 0
0.53125 0.21875 0
0.5625 0.21875 0
0.59375 0.21875 0
0.625 0.21875 0
0.65625 0.21875 0
0.6875 0.21875 0
0.71875 0.21875 0
0.75 0.21875 0
0.78125 0.21875 0
0.8125 0.21875 0
0.84375 0.21875 0
0.875 0.21875 0
0.90625 0.21875 0
0.9375 0.21875 0
0.96875 0.21875 0
1 0.21875 0
0 0.25 0
0.03125 0.25 0
0.0625 0.25 0
0.09375 0.25 0
0.125 0.25 0
0.15625 0.25 0
0.1875 0.25 0
0.21875 0.25 0
0.25 0.25 0
0.28125 0.25 0
0.3125 0.25 0
0.34375 0.25 0
0.375 0.25 0
0.40625 0.25 0
0.4375 0.25 0
0.46875 0.25 0
0.5 0.25 0
0.53125 0.25 0
0.5625 0.25 0
0.59375 0.25 0
0.625 0.25 0
0.65625 0.25 0
0.6875 0.25 0
0.71875 0.25 0
0.75 0.25 0
0.78125 0.25 0
0.8125 0.25 0
0.84375 0.25 0
0.875 0.25 0
0.90625 0.25 0
0.9375 0.25 0
0.96875 0.25 0
1 0.25 0
0 0.28125 0
0.03125 0.28125 0
0.0625 0.28125 0
0.09375 0.28125 0
0.125 0.28125 0
0.15625 0.28125 0
0.1875 0.28125 0
0.21875 0.28125 0
0.25 0.28125 0
0.28125 0.28125 0
0.3125 0.28125 0
0.34375 0.28125 0
0.375 0.28125 0
0.40625 0.28125 0
0.4375 0.28125 0
0.46875 0.28125 0
0.5 0.28125 0
0.53125 0.28125 0
0.5625 0.28125 0
0.59375 0.28125 0
0.625 0.28125 0
0.65625 0.28125 0
0.6875 0.28125 0
0.71875 0.28125 0
0.75 0.28125 0
0.78125 0.28125 0
0.8125 0.28125 0
0.84375 0.28125 0
0.875 0.28125 0
0.90625 0.28125 0
0.9375 0.28125 0
0.96875 0.28125 0
1 0.28125 0
0 0.3125 0
0.03125 0.3125 0
0.0625 0.3125 0
0.09375 0.3125 0
0.125 0.3125 0
0.15625 0.3125 0
0.1875 0.3125 0
0.21875 0.3125 0
0.25 0.3125 0
0.28125 0.3125 0
0.3125 0.3125 0
0.34375 0.3125 0
0.375 0.3125 0
0.40625 0.3125 0
0.4375 0.3125 0
0.46875 0.3125 0
0.5 0.3125 0
0.53125 0.3125 0
0.5625 0.3125 0
0.59375 0.3125 0
0.625 0.3125 0
0.65625 0.3125 0
0.6875 0.3125 0
0.71875 0.3125 0
0.75 0.3125 0
0.78125 0.3125 0
0.8125 0.3125 0
0.84375 0.3125 0
0.875 0.3125 0
0.90625 0.3125 0
0.9375 0.3125 0
0.96875 0.3125 0
1 0.3125 0
0 0.34375 0
0.03125 0.34375 0
0.0625 0.34375 0
0.09375 0.34375 0
0.125 0.34375 0
0.15625 0.34375 0
0.1875 0.34375 0
0.21875 0.34375 0
0.25 0.34375 0
0.28125 0.34375 0
0.3125 0.34375 0
0.34375 0.34375 0
0.375 0.34375 0
0.40625 0.34375 0
0.4375 0.34375 0
0.46875 0.34375 0
0.5 0.34375 0
0.53125 0.34375 0
0.5625 0.34375 0
0.59375 0.34375 0
0.625 0.34375 0
0.65625 0.34375 0
0.6875 0.34375 0
0.71875 0.34375 0
0.75 0.34375 0
0.78125 0.34375 0
0.8125 0.34375 0
0.84375 0.34375 0
0.875 0.34375 0
0.90625 0.34375 0
0.9375 0.34375 0
0.96875 0.34375 0
1 0.34375 0
0 0.375 0
0.03125 0.375 0
0.0625 0.375 0
0.09375 0.375 0
0.125 0.375 0
0.15625 0.375 0
0.1875 0.375 0
0.21875 0.375 0
0.25 0.375 0
0.28125 0.375 0
0.3125 0.375 0
0.34375 0.375 0
0.375 0.375 0
0.40625 0.375 0
0.4375 0.375 0
0.46875 0.375 0
0.5 0.375 0
0.53125 0.375 0
0.5625 0.375 0
0.59375 0.375 0
0.625 0.375 0
0.65625 0.375 0
0.6875 0.375 0
0.71875 0.375 0
0.75 0.375 0
0.78125 0.375 0
0.8125 0.375 0
0.84375 0.375 0
0.875 0.375 0
0.90625 0.375 0
0.9375 0.375 0
0.96875 0.375 0
1 0.375 0
0 0.40625 0
0.03125 0.40625 0
0.0625 0.40625 0
0.09375 0.40625 0
0.125 0.40625 0
0.15625 0.40625 0
0.1875 0.40625 0
0.21875 0.40625 0
0.25 0.40625 0
0.28125 0.40625 0
0.3125 0.40625 0
0.34375 0.40625 0
0.375 0.40625 0
0.40625 0.40625 0
0.4375 0.40625 0
0.46875 0.40625 0
0.5 0.40625 0
0.53125 0.40625 0
0.5625 0.40625 0
0.59375 0.40625 0
0.625 0.40625 0
0.65625 0.40625 0
0.6875 0.40625 0
0.71875 0.40625 0
0.75 0.40625 0
0.78125 0.40625 0
0.8125 0.40625 0
0.84375 0.40625 0
0.875 0.40625 0
0.90625 0.40625 0
0.9375 0.40625 0
0.96875 0.40625 0
1 0.40625 0
0 0.4375 0
0.03125 0.4375 0
0.0625 0.4375 0
0.09375 0.4375 0
0.125 0.4375 0
0.15625 0.4375 0
0.1875 0.4375 0
0.21875 0.4375 0
0.25 0.4375 0
0.28125 0.4375 0
0.3125 0.4375 0
0.34375 0.4375 0
0.375 0.4375 0
0.40625 0.4375 0
0.4375 0.4375 0
0.46875 0.4375 0
0.5 0.4375 0
0.53125 0.4375 0
0.5625 0.4375 0
0.59375 0.4375 0
0.625 0.4375 0
0.65625 0.4375 0
0.6875 0.4375 0
0.71875 0.4375 0
0.75 0.4375 0
0.78125 0.4375 0
0.8125 0.4375 0
0.84375 0.4375 0
0.875 0.4375 0
0.90625 0.4375 0
0.9375 0.4375 0
0.96875 0.4375 0
1 0.4375 0
0 0.46875 0
0.03125 0.46875 0
0.0625 0.46875 0
0.09375 0.46875 0
0.125 0.46875 0
0.15625 0.46875 0
0.1875 0.46875 0
0.21875 0.46875 0
0.25 0.46875 0
0.28125 0.46875 0
0.3125 0.46875 0
0.34375 0.46875 0
0.375 0.46875 0
0.40625 0.46875 0
0.4375 0.46875 0
0.46875 0.46875 0
0.5 0.46875 0
0.53125 0.46875 0
0.5625 0.46875 0
0.59375 0.46875 0
0.625 0.46875 0
0.65625 0.46875 0
0.6875 0.46875 0
0.71875 0.46875 0
0.75 0.46875 0
0.78125 0.46875 0
0.8125 0.46875 0
0.84375 0.46875 0
0.875 0.46875 0
0.90625 0.46875 0
0.9375 0.46875 0
0.96875 0.46875 0
1 0.46875 0
0 0.5 0
0.03125 0.5 0
0.0625 0.5 0
0.09375 0.5 0
0.125 0.5 0
0.15625 0.5 0
0.1875 0.5 0
0.21875 0.5 0
0.25 0.5 0
0.28125 0.5 0
0.3125 0.5 0
0.34375 0.5 0
0.375 0.5 0
0.40625 0.5 0
0.4375 0.5 0
0.46875 0.5 0
0.5 0.5 0
0.53125 0.5 0
0.5625 0.5 0
0.59375 0.5 0
0.625 0.5 0
0.65625 0.5 0
0.6875 0.5 0
0.71875 0.5 0
0.75 0.5 0
0.78125 0.5 0
0.8125 0.5 0
0.84375 0.5 0
0.875 0.5 0
0.90625 0.5 0
0.9375 0.5 0
0.96875 0.5 0
1 0.5 0
0 0.53125 0
0.03125 0.53125 0
0.0625 0.53125 0
0.09375 0.53125 0
0.125 0.53125 0
0.15625 0.53125 0
0.1875 0.53125 0
0.21875 0.53125 0
0.25 0.53125 0
0.28125 0.53125 0
0.3125 0.53125 0
0.34375 0.53125 0
0.375 0.53125 0
0.40625 0.53125 0
0.4375 0.53125 0
0.46875 0.53125 0
0.5 0.53125 0
0.53125 0.53125 0
0.5625 0.53125 0
0.59375 0.53125 0
0.625 0.53125 0
0.65625 0.53125 0
0.6875 0.53125 0
0.71875 0.53125 0
0.75 0.53125 0
0.78125 0.53125 0
0.8125 0.53125 0
0.84375 0.53125 0
0.875 0.53125 0
0.90625 0.53125 0
0.9375 0.53125 0
0.96875 0.53125 0
1 0.53125 0
0 0.5625 0
0.03125 0.5625 0
0.0625 0.5625 0
0.09375 0.5625 0
0.125 0.5625 0
0.15625 0.5625 0
0.1875 0.5625 0
0.21875 0.5625 0
0.25 0.5625 0
0.28125 0.5625 0
0.3125 0.5625 0
0.34375 0.5625 0
0.375 0.5625 0
0.40625 0.5625 0
0.4375 0.5625 0
0.46875 0.5625 0
0.5 0.5625 0
0.53125 0.5625 0
0.5625 0.5625 0
0.59375 0.5625 0
0.625 0.5625 0
0.65625 0.5625 0
0.6875 0.5625 0
0.71875 0.5625 0
0.75 0.5625 0
0.78125 0.5625 0
0.8125 0.5625 0
0.84375 0.5625 0
0.875 0.5625 0
[...]
<PointData  Vectors="u"> 
<DataArray  type="Float32"  Name="u"  NumberOfComponents="3" format="ascii">
 0.000000e+00 0.000000e+00 0.000000e+00
 0.000000e+00 0.000000e+00 0.000000e+00
 0.000000e+00 0.000000e+00 0.000000e+00
 0.000000e+00 0.000000e+00 0.000000e+00
 0.000000e+00 0.000000e+00 0.000000e+00
 0.000000e+00 0.000000e+00 0.000000e+00
 0.000000e+00 0.000000e+00 0.000000e+00
 0.000000e+00 0.000000e+00 0.000000e+00
 0.000000e+00 0.000000e+00 0.000000e+00
 0.000000e+00 0.000000e+00 0.000000e+00
 0.000000e+00 0.000000e+00 0.000000e+00
 0.000000e+00 0.000000e+00 0.000000e+00
 0.000000e+00 0.000000e+00 0.000000e+00
 0.000000e+00 0.000000e+00 0.000000e+00
 0.000000e+00 0.000000e+00 0.000000e+00
 0.000000e+00 0.000000e+00 0.000000e+00
 0.000000e+00 0.000000e+00 0.000000e+00
 0.000000e+00 0.000000e+00 0.000000e+00
 0.000000e+00 0.000000e+00 0.000000e+00
 0.000000e+00 0.000000e+00 0.000000e+00
 0.000000e+00 0.000000e+00 0.000000e+00
 0.000000e+00 0.000000e+00 0.000000e+00
 0.000000e+00 0.000000e+00 0.000000e+00
 0.000000e+00 0.000000e+00 0.000000e+00
 0.000000e+00 0.000000e+00 0.000000e+00
 0.000000e+00 0.000000e+00 0.000000e+00
 0.000000e+00 0.000000e+00 0.000000e+00
 0.000000e+00 0.000000e+00 0.000000e+00
 0.000000e+00 0.000000e+00 0.000000e+00
 0.000000e+00 0.000000e+00 0.000000e+00
 0.000000e+00 0.000000e+00 0.000000e+00
 0.000000e+00 0.000000e+00 0.000000e+00
 0.000000e+00 0.000000e+00 0.000000e+00
 0.000000e+00 0.000000e+00 0.000000e+00
 1.009735e-05 -9.969733e-06 0.000000e+00
 -3.013861e-05 3.570490e-05 0.000000e+00
 -1.686222e-04 9.426236e-05 0.000000e+00
 -4.120860e-04 1.490051e-04 0.000000e+00
 -7.481567e-04 1.936533e-04 0.000000e+00
 -1.156350e-03 2.259684e-04 0.000000e+00
 -1.613236e-03 2.454509e-04 0.000000e+00
 -2.094948e-03 2.524596e-04 0.000000e+00
 -2.578557e-03 2.478283e-04 0.000000e+00
 -3.042871e-03 2.326766e-04 0.000000e+00
 -3.468937e-03 2.083063e-04 0.000000e+00
 -3.840368e-03 1.761370e-04 0.000000e+00
 -4.143559e-03 1.376643e-04 0.000000e+00
 -4.367818e-03 9.443242e-05 0.000000e+00
 -4.505460e-03 4.801451e-05 0.000000e+00
 -4.551856e-03 0.000000e+00 0.000000e+00
 -4.505460e-03 -4.801451e-05 0.000000e+00
 -4.367818e-03 -9.443242e-05 0.000000e+00
 -4.143559e-03 -1.376643e-04 0.000000e+00
 -3.840368e-03 -1.761370e-04 0.000000e+00
 -3.468937e-03 -2.083063e-04 0.000000e+00
 -3.042871e-03 -2.326766e-04 0.000000e+00
 -2.578557e-03 -2.478283e-04 0.000000e+00
 -2.094948e-03 -2.524596e-04 0.000000e+00
 -1.613236e-03 -2.454509e-04 0.000000e+00
 -1.156350e-03 -2.259684e-04 0.000000e+00
 -7.481567e-04 -1.936533e-04 0.000000e+00
 -4.120860e-04 -1.490051e-04 0.000000e+00
 -1.686222e-04 -9.426236e-05 0.000000e+00
 -3.013861e-05 -3.570490e-05 0.000000e+00
 1.009735e-05 9.969733e-06 0.000000e+00
 0.000000e+00 0.000000e+00 0.000000e+00
 0.000000e+00 0.000000e+00 0.000000e+00
 -3.462579e-05 2.964371e-05 0.000000e+00
 -1.908349e-04 1.924074e-04 0.000000e+00
 -5.104073e-04 3.914018e-04 0.000000e+00
 -9.981323e-04 5.797601e-04 0.000000e+00
 -1.635420e-03 7.356639e-04 0.000000e+00
 -2.390580e-03 8.496205e-04 0.000000e+00
 -3.225638e-03 9.184822e-04 0.000000e+00
 -4.100613e-03 9.425965e-04 0.000000e+00
 -4.976180e-03 9.243777e-04 0.000000e+00
 -5.815399e-03 8.675344e-04 0.000000e+00
 -6.584848e-03 7.766163e-04 0.000000e+00
 -7.255383e-03 6.567289e-04 0.000000e+00
 -7.802652e-03 5.133451e-04 0.000000e+00
 -8.207442e-03 3.521755e-04 0.000000e+00
 -8.455893e-03 1.790791e-04 0.000000e+00
 -8.539642e-03 0.000000e+00 0.000000e+00
 -8.455893e-03 -1.790791e-04 0.000000e+00
 -8.207442e-03 -3.521755e-04 0.000000e+00
 -7.802652e-03 -5.133451e-04 0.000000e+00
 -7.255383e-03 -6.567289e-04 0.000000e+00
 -6.584848e-03 -7.766163e-04 0.000000e+00
 -5.815399e-03 -8.675344e-04 0.000000e+00
 -4.976180e-03 -9.243777e-04 0.000000e+00
 -4.100613e-03 -9.425965e-04 0.000000e+00
 -3.225638e-03 -9.184822e-04 0.000000e+00
 -2.390580e-03 -8.496205e-04 0.000000e+00
 -1.635420e-03 -7.356639e-04 0.000000e+00
 -9.981323e-04 -5.797601e-04 0.000000e+00
 -5.104073e-04 -3.914018e-04 0.000000e+00
 -1.908349e-04 -1.924074e-04 0.000000e+00
 -3.462579e-05 -2.964371e-05 0.000000e+00
 0.000000e+00 0.000000e+00 0.000000e+00
 0.000000e+00 0.000000e+00 0.000000e+00
 -9.318333e-05 1.670500e-04 0.000000e+00
 -3.927338e-04 5.133948e-04 0.000000e+00
 -9.140473e-04 9.091270e-04 0.000000e+00
 -1.649471e-03 1.281024e-03 0.000000e+00
 -2.571674e-03 1.589756e-03 0.000000e+00
 -3.639890e-03 1.815836e-03 0.000000e+00
 -4.805743e-03 1.951533e-03 0.000000e+00
 -6.017787e-03 1.996300e-03 0.000000e+00
 -7.224828e-03 1.954151e-03 0.000000e+00
 -8.378273e-03 1.832095e-03 0.000000e+00
 -9.433796e-03 1.639146e-03 0.000000e+00
 -1.035250e-02 1.385674e-03 0.000000e+00
 -1.110173e-02 1.082963e-03 0.000000e+00
 -1.165564e-02 7.428974e-04 0.000000e+00
 -1.199551e-02 3.777459e-04 0.000000e+00
 -1.211007e-02 0.000000e+00 0.000000e+00
 -1.199551e-02 -3.777459e-04 0.000000e+00
 -1.165564e-02 -7.428974e-04 0.000000e+00
 -1.110173e-02 -1.082963e-03 0.000000e+00
 -1.035250e-02 -1.385674e-03 0.000000e+00
 -9.433796e-03 -1.639146e-03 0.000000e+00
 -8.378273e-03 -1.832095e-03 0.000000e+00
 -7.224828e-03 -1.954151e-03 0.000000e+00
 -6.017787e-03 -1.996300e-03 0.000000e+00
 -4.805743e-03 -1.951533e-03 0.000000e+00
 -3.639890e-03 -1.815836e-03 0.000000e+00
 -2.571674e-03 -1.589756e-03 0.000000e+00
 -1.649471e-03 -1.281024e-03 0.000000e+00
 -9.140473e-04 -9.091270e-04 0.000000e+00
 -3.927338e-04 -5.133948e-04 0.000000e+00
 -9.318333e-05 -1.670500e-04 0.000000e+00
 0.000000e+00 0.000000e+00 0.000000e+00
 0.000000e+00 0.000000e+00 0.000000e+00
 -1.516929e-04 4.138475e-04 0.000000e+00
 -5.989098e-04 1.013737e-03 0.000000e+00
 -1.327051e-03 1.655438e-03 0.000000e+00
 -2.309948e-03 2.247796e-03 0.000000e+00
 -3.507835e-03 2.736688e-03 0.000000e+00
 -4.869963e-03 3.092792e-03 0.000000e+00
 -6.338633e-03 3.303257e-03 0.000000e+00
 -7.853139e-03 3.366239e-03 0.000000e+00
 -9.353082e-03 3.287361e-03 0.000000e+00
 -1.078097e-02 3.077377e-03 0.000000e+00
 -1.208415e-02 2.750597e-03 0.000000e+00
 -1.321631e-02 2.323790e-03 0.000000e+00
 -1.413842e-02 1.815410e-03 0.000000e+00
 -1.481955e-02 1.245039e-03 0.000000e+00
 -1.523726e-02 6.329890e-04 0.000000e+00
 -1.537801e-02 0.000000e+00 0.000000e+00
 -1.523726e-02 -6.329890e-04 0.000000e+00
 -1.481955e-02 -1.245039e-03 0.000000e+00
 -1.413842e-02 -1.815410e-03 0.000000e+00
 -1.321631e-02 -2.323790e-03 0.000000e+00
 -1.208415e-02 -2.750597e-03 0.000000e+00
 -1.078097e-02 -3.077377e-03 0.000000e+00
 -9.353082e-03 -3.287361e-03 0.000000e+00
 -7.853139e-03 -3.366239e-03 0.000000e+00
 -6.338633e-03 -3.303257e-03 0.000000e+00
 -4.869963e-03 -3.092792e-03 0.000000e+00
 -3.507835e-03 -2.736688e-03 0.000000e+00
 -2.309948e-03 -2.247796e-03 0.000000e+00
 -1.327051e-03 -1.655438e-03 0.000000e+00
 -5.989098e-04 -1.013737e-03 0.000000e+00
 -1.516929e-04 -4.138475e-04 0.000000e+00
 0.000000e+00 0.000000e+00 0.000000e+00
 0.000000e+00 0.000000e+00 0.000000e+00
 -2.065403e-04 7.676752e-04 0.000000e+00
 -7.968260e-04 1.693774e-03 0.000000e+00
 -1.728721e-03 2.630224e-03 0.000000e+00
 -2.955524e-03 3.475587e-03 0.000000e+00
 -4.422439e-03 4.165248e-03 0.000000e+00
 -6.067131e-03 4.662079e-03 0.000000e+00
 -7.822235e-03 4.948953e-03 0.000000e+00
 -9.618446e-03 5.023144e-03 0.000000e+00
 -1.138747e-02 4.892274e-03 0.000000e+00
 -1.306455e-02 4.571376e-03 0.000000e+00
 -1.459047e-02 4.080779e-03 0.000000e+00
 -1.591313e-02 3.444555e-03 0.000000e+00
 -1.698862e-02 2.689386e-03 0.000000e+00
 -1.778213e-02 1.843721e-03 0.000000e+00
 -1.826842e-02 9.371634e-04 0.000000e+00
 -1.843222e-02 0.000000e+00 0.000000e+00
 -1.826842e-02 -9.371634e-04 0.000000e+00
 -1.778213e-02 -1.843721e-03 0.000000e+00
 -1.698862e-02 -2.689386e-03 0.000000e+00
 -1.591313e-02 -3.444555e-03 0.000000e+00
 -1.459047e-02 -4.080779e-03 0.000000e+00
 -1.306455e-02 -4.571376e-03 0.000000e+00
 -1.138747e-02 -4.892274e-03 0.000000e+00
 -9.618446e-03 -5.023144e-03 0.000000e+00
 -7.822235e-03 -4.948953e-03 0.000000e+00
 -6.067131e-03 -4.662079e-03 0.000000e+00
 -4.422439e-03 -4.165248e-03 0.000000e+00
 -2.955524e-03 -3.475587e-03 0.000000e+00
 -1.728721e-03 -2.630224e-03 0.000000e+00
 -7.968260e-04 -1.693774e-03 0.000000e+00
 -2.065403e-04 -7.676752e-04 0.000000e+00
 0.000000e+00 0.000000e+00 0.000000e+00
 0.000000e+00 0.000000e+00 0.000000e+00
 -2.575903e-04 1.222522e-03 0.000000e+00
 -9.843680e-04 2.548059e-03 0.000000e+00
 -2.114225e-03 3.829205e-03 0.000000e+00
 -3.580042e-03 4.959547e-03 0.000000e+00
 -5.310693e-03 5.868156e-03 0.000000e+00
 -7.230911e-03 6.512894e-03 0.000000e+00
 -9.262882e-03 6.874127e-03 0.000000e+00
 -1.132860e-02 6.949420e-03 0.000000e+00
 -1.335236e-02 6.749273e-03 0.000000e+00
 -1.526302e-02 6.293793e-03 0.000000e+00
 -1.699586e-02 5.610124e-03 0.000000e+00
 -1.849414e-02 4.730482e-03 0.000000e+00
 -1.971019e-02 3.690662e-03 0.000000e+00
 -2.060620e-02 2.528913e-03 0.000000e+00
 -2.115484e-02 1.285087e-03 0.000000e+00
 -2.133956e-02 0.000000e+00 0.000000e+00
 -2.115484e-02 -1.285087e-03 0.000000e+00
 -2.060620e-02 -2.528913e-03 0.000000e+00
 -1.971019e-02 -3.690662e-03 0.000000e+00
 -1.849414e-02 -4.730482e-03 0.000000e+00
 -1.699586e-02 -5.610124e-03 0.000000e+00
 -1.526302e-02 -6.293793e-03 0.000000e+00
 -1.335236e-02 -6.749273e-03 0.000000e+00
 -1.132860e-02 -6.949420e-03 0.000000e+00
 -9.262882e-03 -6.874127e-03 0.000000e+00
 -7.230911e-03 -6.512894e-03 0.000000e+00
 -5.310693e-03 -5.868156e-03 0.000000e+00
 -3.580042e-03 -4.959547e-03 0.000000e+00
 -2.114225e-03 -3.829205e-03 0.000000e+00
 -9.843680e-04 -2.548059e-03 0.000000e+00
 -2.575903e-04 -1.222522e-03 0.000000e+00
 0.000000e+00 0.000000e+00 0.000000e+00
 0.000000e+00 0.000000e+00 0.000000e+00
 -3.057949e-04 1.772762e-03 0.000000e+00
 -1.163512e-03 3.570321e-03 0.000000e+00
 -2.485926e-03 5.247173e-03 0.000000e+00
 -4.186292e-03 6.695149e-03 0.000000e+00
 -6.176674e-03 7.840439e-03 0.000000e+00
 -8.367977e-03 8.638801e-03 0.000000e+00
 -1.067118e-02 9.070349e-03 0.000000e+00
 -1.299922e-02 9.134643e-03 0.000000e+00
 -1.526904e-02 8.846403e-03 0.000000e+00
 -1.740352e-02 8.231906e-03 0.000000e+00
 -1.933315e-02 7.326068e-03 0.000000e+00
 -2.099731e-02 6.170119e-03 0.000000e+00
 -2.234533e-02 4.809782e-03 0.000000e+00
 -2.333715e-02 3.293877e-03 0.000000e+00
 -2.394389e-02 1.673259e-03 0.000000e+00
 -2.414808e-02 0.000000e+00 0.000000e+00
 -2.394389e-02 -1.673259e-03 0.000000e+00
 -2.333715e-02 -3.293877e-03 0.000000e+00
 -2.234533e-02 -4.809782e-03 0.000000e+00
 -2.099731e-02 -6.170119e-03 0.000000e+00
 -1.933315e-02 -7.326068e-03 0.000000e+00
 -1.740352e-02 -8.231906e-03 0.000000e+00
 -1.526904e-02 -8.846403e-03 0.000000e+00
 -1.299922e-02 -9.134643e-03 0.000000e+00
 -1.067118e-02 -9.070349e-03 0.000000e+00
 -8.367977e-03 -8.638801e-03 0.000000e+00
 -6.176674e-03 -7.840439e-03 0.000000e+00
 -4.186292e-03 -6.695149e-03 0.000000e+00
 -2.485926e-03 -5.247173e-03 0.000000e+00
 -1.163512e-03 -3.570321e-03 0.000000e+00
 -3.057949e-04 -1.772762e-03 0.000000e+00
 0.000000e+00 0.000000e+00 0.000000e+00
 0.000000e+00 0.000000e+00 0.000000e+00
 -3.523426e-04 2.414477e-03 0.000000e+00
 -1.337516e-03 4.755741e-03 0.000000e+00
 -2.848873e-03 6.879913e-03 0.000000e+00
 -4.780723e-03 8.678924e-03 0.000000e+00
 -7.028171e-03 1.007878e-02 0.000000e+00
 -9.487734e-03 1.103588e-02 0.000000e+00
 -1.205861e-02 1.153255e-02 0.000000e+00
 -1.464432e-02 1.157240e-02 0.000000e+00
 -1.715440e-02 1.117606e-02 0.000000e+00
 -1.950600e-02 1.037737e-02 0.000000e+00
 -2.162523e-02 9.220154e-03 0.000000e+00
 -2.344822e-02 7.755597e-03 0.000000e+00
 -2.492191e-02 6.040143e-03 0.000000e+00
 -2.600458e-02 4.133859e-03 0.000000e+00
 -2.666623e-02 2.099191e-03 0.000000e+00
 -2.688880e-02 0.000000e+00 0.000000e+00
 -2.666623e-02 -2.099191e-03 0.000000e+00
 -2.600458e-02 -4.133859e-03 0.000000e+00
 -2.492191e-02 -6.040143e-03 0.000000e+00
 -2.344822e-02 -7.755597e-03 0.000000e+00
 -2.162523e-02 -9.220154e-03 0.000000e+00
 -1.950600e-02 -1.037737e-02 0.000000e+00
 -1.715440e-02 -1.117606e-02 0.000000e+00
 -1.464432e-02 -1.157240e-02 0.000000e+00
 -1.205861e-02 -1.153255e-02 0.000000e+00
 -9.487734e-03 -1.103588e-02 0.000000e+00
 -7.028171e-03 -1.007878e-02 0.000000e+00
 -4.780723e-03 -8.678924e-03 0.000000e+00
 -2.848873e-03 -6.879913e-03 0.000000e+00
 -1.337516e-03 -4.755741e-03 0.000000e+00
 -3.523426e-04 -2.414477e-03 0.000000e+00
 0.000000e+00 0.000000e+00 0.000000e+00
 0.000000e+00 0.000000e+00 0.000000e+00
 -3.983451e-04 3.145710e-03 0.000000e+00
 -1.509692e-03 6.101723e-03 0.000000e+00
 -3.208520e-03 8.725014e-03 0.000000e+00
 -5.370429e-03 1.090878e-02 0.000000e+00
 -7.873411e-03 1.258105e-02 0.000000e+00
 -1.059922e-02 1.370147e-02 0.000000e+00
 -1.343490e-02 1.425711e-02 0.000000e+00
 -1.627430e-02 1.425794e-02 0.000000e+00
 -1.901955e-02 1.373247e-02 0.000000e+00
 -2.158231e-02 1.272371e-02 0.000000e+00
 -2.388473e-02 1.128570e-02 0.000000e+00
 -2.586022e-02 9.480620e-03 0.000000e+00
 -2.745390e-02 7.376414e-03 0.000000e+00
 -2.862293e-02 5.044996e-03 0.000000e+00
 -2.933662e-02 2.560855e-03 0.000000e+00
 -2.957657e-02 0.000000e+00 0.000000e+00
 -2.933662e-02 -2.560855e-03 0.000000e+00
 -2.862293e-02 -5.044996e-03 0.000000e+00
 -2.745390e-02 -7.376414e-03 0.000000e+00
 -2.586022e-02 -9.480620e-03 0.000000e+00
 -2.388473e-02 -1.128570e-02 0.000000e+00
 -2.158231e-02 -1.272371e-02 0.000000e+00
 -1.901955e-02 -1.373247e-02 0.000000e+00
 -1.627430e-02 -1.425794e-02 0.000000e+00
 -1.343490e-02 -1.425711e-02 0.000000e+00
 -1.059922e-02 -1.370147e-02 0.000000e+00
 -7.873411e-03 -1.258105e-02 0.000000e+00
 -5.370429e-03 -1.090878e-02 0.000000e+00
 -3.208520e-03 -8.725014e-03 0.000000e+00
 -1.509692e-03 -6.101723e-03 0.000000e+00
 -3.983451e-04 -3.145710e-03 0.000000e+00
 0.000000e+00 0.000000e+00 0.000000e+00
 0.000000e+00 0.000000e+00 0.000000e+00
 -4.447244e-04 3.966282e-03 0.000000e+00
 -1.682866e-03 7.607864e-03 0.000000e+00
 -3.569583e-03 1.078190e-02 0.000000e+00
 -5.961451e-03 1.338382e-02 0.000000e+00
 -8.719022e-03 1.534575e-02 0.000000e+00
 -1.170898e-02 1.663310e-02 0.000000e+00
 -1.480596e-02 1.724035e-02 0.000000e+00
 -1.789412e-02 1.718633e-02 0.000000e+00
 -2.086835e-02 1.650961e-02 0.000000e+00
 -2.363514e-02 1.526422e-02 0.000000e+00
 -2.611324e-02 1.351586e-02 0.000000e+00
 -2.823392e-02 1.133877e-02 0.000000e+00
 -2.994113e-02 8.813178e-03 0.000000e+00
 -3.119142e-02 6.023371e-03 0.000000e+00
 -3.195392e-02 3.056197e-03 0.000000e+00
 -3.221013e-02 0.000000e+00 0.000000e+00
 -3.195392e-02 -3.056197e-03 0.000000e+00
 -3.119142e-02 -6.023371e-03 0.000000e+00
 -2.994113e-02 -8.813178e-03 0.000000e+00
 -2.823392e-02 -1.133877e-02 0.000000e+00
 -2.611324e-02 -1.351586e-02 0.000000e+00
 -2.363514e-02 -1.526422e-02 0.000000e+00
 -2.086835e-02 -1.650961e-02 0.000000e+00
 -1.789412e-02 -1.718633e-02 0.000000e+00
 -1.480596e-02 -1.724035e-02 0.000000e+00
 -1.170898e-02 -1.663310e-02 0.000000e+00
 -8.719022e-03 -1.534575e-02 0.000000e+00
 -5.961451e-03 -1.338382e-02 0.000000e+00
 -3.569583e-03 -1.078190e-02 0.000000e+00
 -1.682866e-03 -7.607864e-03 0.000000e+00
 -4.447244e-04 -3.966282e-03 0.000000e+00
 0.000000e+00 0.000000e+00 0.000000e+00
 0.000000e+00 0.000000e+00 0.000000e+00
 -4.921775e-04 4.877437e-03 0.000000e+00
 -1.859151e-03 9.275527e-03 0.000000e+00
 -3.935463e-03 1.305134e-02 0.000000e+00
 -6.557806e-03 1.610375e-02 0.000000e+00
 -9.568727e-03 1.837109e-02 0.000000e+00
 -1.281951e-02 1.982727e-02 0.000000e+00
 -1.617232e-02 2.047702e-02 0.000000e+00
 -1.950178e-02 2.035073e-02 0.000000e+00
 -2.269592e-02 1.949945e-02 0.000000e+00
 -2.565670e-02 1.799020e-02 0.000000e+00
 -2.830016e-02 1.590191e-02 0.000000e+00
 -3.055621e-02 1.332200e-02 0.000000e+00
 -3.236837e-02 1.034374e-02 0.000000e+00
 -3.369329e-02 7.064186e-03 0.000000e+00
 -3.450037e-02 3.582715e-03 0.000000e+00
 -3.477141e-02 0.000000e+00 0.000000e+00
 -3.450037e-02 -3.582715e-03 0.000000e+00
 -3.369329e-02 -7.064186e-03 0.000000e+00
 -3.236837e-02 -1.034374e-02 0.000000e+00
 -3.055621e-02 -1.332200e-02 0.000000e+00
 -2.830016e-02 -1.590191e-02 0.000000e+00
 -2.565670e-02 -1.799020e-02 0.000000e+00
 -2.269592e-02 -1.949945e-02 0.000000e+00
 -1.950178e-02 -2.035073e-02 0.000000e+00
 -1.617232e-02 -2.047702e-02 0.000000e+00
 -1.281951e-02 -1.982727e-02 0.000000e+00
 -9.568727e-03 -1.837109e-02 0.000000e+00
 -6.557806e-03 -1.610375e-02 0.000000e+00
 -3.935463e-03 -1.305134e-02 0.000000e+00
 -1.859151e-03 -9.275527e-03 0.000000e+00
 -4.921775e-04 -4.877437e-03 0.000000e+00
 0.000000e+00 0.000000e+00 0.000000e+00
 0.000000e+00 0.000000e+00 0.000000e+00
 -5.411681e-04 5.881421e-03 0.000000e+00
 -2.039844e-03 1.110720e-02 0.000000e+00
 -4.307931e-03 1.553471e-02 0.000000e+00
 -7.160879e-03 1.906792e-02 0.000000e+00
 -1.042242e-02 2.165393e-02 0.000000e+00
 -1.392811e-02 2.327817e-02 0.000000e+00
 -1.752772e-02 2.395878e-02 0.000000e+00
 -2.108676e-02 2.374071e-02 0.000000e+00
 -2.448712e-02 2.269011e-02 0.000000e+00
 -2.762714e-02 2.088916e-02 0.000000e+00
 -3.042115e-02 1.843163e-02 0.000000e+00
 -3.279874e-02 1.541927e-02 0.000000e+00
 -3.470396e-02 1.195902e-02 0.000000e+00
 -3.609439e-02 8.160997e-03 0.000000e+00
 -3.694033e-02 4.137064e-03 0.000000e+00
 -3.722424e-02 0.000000e+00 0.000000e+00
 -3.694033e-02 -4.137064e-03 0.000000e+00
 -3.609439e-02 -8.160997e-03 0.000000e+00
 -3.470396e-02 -1.195902e-02 0.000000e+00
 -3.279874e-02 -1.541927e-02 0.000000e+00
 -3.042115e-02 -1.843163e-02 0.000000e+00
 -2.762714e-02 -2.088916e-02 0.000000e+00
 -2.448712e-02 -2.269011e-02 0.000000e+00
 -2.108676e-02 -2.374071e-02 0.000000e+00
 -1.752772e-02 -2.395878e-02 0.000000e+00
 -1.392811e-02 -2.327817e-02 0.000000e+00
 -1.042242e-02 -2.165393e-02 0.000000e+00
 -7.160879e-03 -1.906792e-02 0.000000e+00
 -4.307931e-03 -1.553471e-02 0.000000e+00
 -2.039844e-03 -1.110720e-02 0.000000e+00
 -5.411681e-04 -5.881421e-03 0.000000e+00
 0.000000e+00 0.000000e+00 0.000000e+00
 0.000000e+00 0.000000e+00 0.000000e+00
 -5.919254e-04 6.981042e-03 0.000000e+00
 -2.225364e-03 1.310572e-02 0.000000e+00
 -4.686906e-03 1.823294e-02 0.000000e+00
 -7.768958e-03 2.227411e-02 0.000000e+00
 -1.127543e-02 2.518829e-02 0.000000e+00
 -1.502581e-02 2.697599e-02 0.000000e+00
 -1.885778e-02 2.767239e-02 0.000000e+00
 -2.262850e-02 2.734036e-02 0.000000e+00
 -2.621483e-02 2.606405e-02 0.000000e+00
 -2.951275e-02 2.394308e-02 0.000000e+00
 -3.243630e-02 2.108774e-02 0.000000e+00
 -3.491611e-02 1.761516e-02 0.000000e+00
 -3.689797e-02 1.364650e-02 0.000000e+00
 -3.834139e-02 9.304971e-03 0.000000e+00
 -3.921836e-02 4.714684e-03 0.000000e+00
 -3.951249e-02 0.000000e+00 0.000000e+00
 -3.921836e-02 -4.714684e-03 0.000000e+00
 -3.834139e-02 -9.304971e-03 0.000000e+00
 -3.689797e-02 -1.364650e-02 0.000000e+00
 -3.491611e-02 -1.761516e-02 0.000000e+00
 -3.243630e-02 -2.108774e-02 0.000000e+00
 -2.951275e-02 -2.394308e-02 0.000000e+00
 -2.621483e-02 -2.606405e-02 0.000000e+00
 -2.262850e-02 -2.734036e-02 0.000000e+00
 -1.885778e-02 -2.767239e-02 0.000000e+00
 -1.502581e-02 -2.697599e-02 0.000000e+00
 -1.127543e-02 -2.518829e-02 0.000000e+00
 -7.768958e-03 -2.227411e-02 0.000000e+00
 -4.686906e-03 -1.823294e-02 0.000000e+00
 -2.225364e-03 -1.310572e-02 0.000000e+00
 -5.919254e-04 -6.981042e-03 0.000000e+00
 0.000000e+00 0.000000e+00 0.000000e+00
 0.000000e+00 0.000000e+00 0.000000e+00
 -6.444409e-04 8.179204e-03 0.000000e+00
 -2.415194e-03 1.527343e-02 0.000000e+00
 -5.070257e-03 2.114531e-02 0.000000e+00
 -8.376784e-03 2.571700e-02 0.000000e+00
 -1.211770e-02 2.896358e-02 0.000000e+00
 -1.609625e-02 3.090501e-02 0.000000e+00
 -2.013857e-02 3.159770e-02 0.000000e+00
 -2.409467e-02 3.112627e-02 0.000000e+00
 -2.783794e-02 2.959605e-02 0.000000e+00
 -3.126383e-02 2.712652e-02 0.000000e+00
 -3.428789e-02 2.384618e-02 0.000000e+00
 -3.684353e-02 1.988848e-02 0.000000e+00
 -3.887981e-02 1.538909e-02 0.000000e+00
 -4.035942e-02 1.048416e-02 0.000000e+00
 -4.125698e-02 5.309425e-03 0.000000e+00
 -4.155777e-02 0.000000e+00 0.000000e+00
 -4.125698e-02 -5.309425e-03 0.000000e+00
 -4.035942e-02 -1.048416e-02 0.000000e+00